838
Lattice="26.47 0.0 0.0 0.0 26.47 0.0 0.0 0.0 26.47" Properties=species:S:1:pos:R:3:momenta:R:3:forces:R:3 energy=-4595.20616346213 stress="0.0023486108984798193 -0.0004832590348087251 0.0005740055348724127 -0.0004832590348087251 0.002187121193856001 -0.0007658730610273778 0.0005740055348724127 -0.0007658730610273778 0.0037220395170152187" pbc="T T T"
Na       3.62234934       9.67891265      21.83733180       0.99187887      -0.46927244      -0.95390096      -0.14574756       0.01786228      -0.08859807
Na      26.80343824       3.45139630      14.35444315       1.39420852      -0.03466109       0.06977439      -0.01127613      -0.00428442       0.09382473
Na      16.07210294      24.89578735      -0.51328448       1.04604491       0.47988486       1.28569032      -0.08405653       0.24396254      -0.15418485
Na      25.96439070       5.75479034      20.04547555      -0.89249810       0.04606658      -0.28467548       0.28596935      -0.25275382       0.05027246
Na       0.85921147      10.38177525       4.68789402      -0.51875180      -1.35323391      -0.57271192       0.01023477      -0.11563020      -0.52423960
Na      14.50329267      -5.95023116      14.48997622       1.34057041      -0.02481429       0.57661880      -0.32904366       0.06586807      -0.01117932
Na       8.66595673      15.86996141      19.91235191      -0.22891530      -0.69692772      -0.23104037       0.23301515      -0.11614401      -0.12805158
Na      10.12678936      10.26506392      22.71484571       0.29643602      -0.35821121       0.81943564       0.19953665       0.00210257      -0.91422766
Na      19.37581205       8.10506931       5.83619588       0.57783182      -0.49546444       0.83966108       0.00134990      -0.15736510      -0.27705035
Na      22.58330711      13.97912698       4.66201879      -0.30247900      -0.42381718      -0.22150719      -0.00104322      -0.10073186      -0.35097900
Na      16.13266850      17.12107202      20.17010476       0.57036898      -1.36573581      -1.34725650      -0.13012633      -0.20489997      -0.12251107
Na      22.64873080       5.66312281      -3.66543893      -1.43951598       0.31274290      -0.55469323      -0.06855184      -0.21417071      -0.10320788
Na       9.10573855      20.25071488      16.34767307       0.25339296       0.59638968       0.64451158       0.24602096      -0.05310583       0.09600575
Na      15.49585970      11.32720128      13.94678188      -0.46818925       0.28953919      -0.93217971       0.00255547      -0.13487726       0.15579614
Na       2.10734877       9.67264031      17.97971518      -0.22808091       0.71189854      -0.11404226      -0.23489100      -0.25673160      -0.16416293
Na      22.62055393      24.16825569      20.31958471       0.61059287       0.55015209       0.52560309       0.31243956       0.04133566      -0.16758180
Na      -1.19488278       9.39496670       0.04505884      -0.27094658       0.84568662      -0.51463224       0.28015575       0.00260924       0.43390232
Na      15.00000155      -0.16212575      17.38207110       0.62927528       0.26996746      -1.29591719       0.12879530      -0.16930510       0.20930862
Na       6.83382931      13.66693771       8.40298750      -0.44753842       0.15378140      -0.65196229       0.28932160       0.09379099       0.04549616
Na       9.71324931      17.17235490      13.78509136      -0.49972817      -0.14823746       0.72379177       0.12874860      -0.30171216       0.16033158
Na       8.16752985       7.24593821       6.38181864       0.24063645      -0.97930964       0.40072120      -0.41158921       0.54486203      -0.72778827
Na      16.12555078       9.70355825      -1.44393835       1.36771875       0.77107185       0.80858766       0.28820452       0.09129629      -0.32967636
Na      -5.31031734      24.96475484      11.44967577      -0.10674349       0.73234370       0.42385069       0.31689012       0.15964116      -0.13432065
Na      17.47535364      17.61998571      15.39127231       0.52354895       0.21782777       0.69176162      -0.05629609       0.04692921       0.01626891
Na      14.94412797      13.86560110       3.12683355      -0.47732300       0.03806242      -0.18077377       0.26699615      -0.09814674      -0.37782419
Na      19.24822249      19.88378709      -3.16176866      -0.72114810      -0.21811618      -0.15103555       0.05149746      -0.03664094       0.06798449
Na      13.61051678      11.69007221      21.32478208       0.07046301      -0.61874787      -0.05911808      -0.09811478       0.00813720      -0.20126107
Na      -1.88478214      24.26477134      12.09595129       0.72619507       0.37286185      -0.36688925       0.25845709      -0.34923151      -0.08982392
Na      18.45413680       4.84921207      25.79783468      -1.05394031       1.09534288       0.12019264       0.12765820       0.23159128      -0.21720761
Na      20.08888069      19.61977298       8.12213475       0.55592106      -1.03797398       1.31591234      -0.06998030      -0.41834992      -0.12357780
Na       8.10906463       6.93458971      14.46978576       0.34165745       0.43964914      -1.61123592      -0.10010844       0.25661826      -0.01394058
Na       3.81088345      11.00468428       8.60515357       0.51480227       1.23061470      -0.39498890      -0.09658519      -0.22763269       0.28734124
Na      23.18471184      11.78441515       8.46865706      -0.62392684       0.47104030       0.07855284       0.07015298      -0.07203326      -0.16894074
Na      16.81629397      21.24398825      20.72774121      -1.43543479       0.32397799      -0.25011591      -0.29388928       0.33442092       0.05606341
Na      16.66811599      20.11730257      27.58437734       0.55287001      -0.31178625      -0.94713503      -0.09037527       0.05339276       0.13002233
Na      13.73142934       5.26748901      23.88571920      -0.39850674      -0.52128133      -1.91603224      -0.14930645       0.38526577      -0.20512852
Na       7.94173573       9.76719954      10.33778945       0.96925242      -1.11347290       0.44095326      -0.06898511      -0.04226032      -0.07540532
Na      13.51811184      11.99363407       6.96962486       0.05080480      -0.24010355       0.67382385      -0.17118828       0.01866299      -0.13050461
Na      17.33938358      26.44509029      23.07117275       0.95069320       0.27168760      -1.11994354      -0.30265376       0.57864678      -0.39799750
Na      12.77271950       3.36151554       0.09537467      -0.79646228      -0.07107795      -0.39595489      -0.16122013      -0.29984835       0.06680921
Na      12.07553927      14.84631746      11.11386851      -0.08865631      -0.96266914       0.29411060      -0.27795464      -0.03927219       0.03691597
Na      12.20371276       8.99189173      13.71403095       0.40646608      -0.05127335       0.09362503      -0.07332715      -0.13747881      -0.06097705
Na      22.82204477      22.24249956      17.39858421      -0.02509851       0.22259779      -1.20550525      -0.03922959       0.46710458       0.49728522
Na      22.89191336       7.72568781       7.79850541      -0.12055822       0.53419699       0.48521519      -0.22085795       0.03659907      -0.06151640
Na       0.95086855      26.54144753      12.28390823       0.00391500       1.03388502       0.23060332       0.02616705      -0.22768606       0.11863425
Na      19.04206572      15.41252015       1.84743899       0.44240789      -0.91558724      -0.46002272      -0.08524929       0.01708073       0.08071446
Na      17.79086308       9.84735518      17.00543238      -1.56275275       0.77101400       0.69901372      -0.42107195       0.24009167       0.06901124
Na      13.81289230      15.15687653      22.30804981      -1.12919044       0.73252346       0.46150202      -0.03550772       0.17639133       0.05253178
Na       0.24659933       9.49938753      11.88429696       1.09119085      -0.81540836      -1.07285553       0.23248349      -0.24595524      -0.30547243
Na      21.62428691       0.88608723       9.44046269      -0.08215707      -0.85811729       0.31777773      -0.08042368       0.26536089      -0.33762786
Na      19.84607117      13.36216289      10.67063393       0.74615015       0.13741475      -0.79917916       0.26752996      -0.11967586      -0.48678124
Na      15.74425928       7.56774159       3.59756393      -0.59828651      -0.41953330      -0.16234463       0.30414006      -0.12180354       0.29389781
Na      24.50060331       0.81223614      18.64017477       1.19950391       1.03831527       2.26008401       0.15574747      -0.39691594       0.30420041
Na      11.70260818       8.40385392      25.48795868       0.22845082      -0.50168963       1.52206454      -0.43888989      -0.06234571      -0.08888124
Na      12.68026502      28.89582295      18.73889627       0.26225075      -0.00283534      -1.21777100      -0.28439951      -0.43735367       0.67511570
Na      13.46771706       8.79176686       9.63356182      -0.45553102       0.42927696       0.00158471       0.29285106      -0.08269945      -0.18555824
Na       9.71100296      10.74524670       4.63374551      -0.49462876      -0.05315919      -1.24153326      -0.00811912       0.11645692      -0.54878515
Na      19.68148744      22.26762657      12.91725760       0.60945961       0.49656987       0.81985221       0.77086848       0.47707048       0.27148980
Na       0.24021997       9.05347751      20.64242915      -0.66571250       1.36086502       1.00954741      -0.15279059      -0.06726333       0.38756281
Na      21.10925419      14.79697282      13.36147656      -0.02474099       0.51507079      -0.34508886       0.24720331      -0.02339109       0.26816088
N       18.63018763      12.20540813       7.01839317      -0.51211585      -0.07556974       0.24963055       0.73954463      -0.61193752       0.82289410
C       19.81349237      12.01166945       7.60826287      -0.08921353       0.48350130       0.24963414      -1.93796861       0.25458422      -1.74754703
N       20.86530998      11.94622152       8.12615472       1.15254670       0.36570920       0.27628180       0.12415177      -0.25022131       0.21125846
S       18.04223751      11.57920289       5.67323317      -1.78355553      -0.01538959       0.79952214      -0.65023154       1.99547756       0.82334167
O       16.64733948      11.94084639       5.55810363       0.86011011      -0.36489070      -0.23394162       0.31581402       0.11702392       0.05849176
O       18.41967374      10.25053323       5.35495599      -1.03450781      -0.92318708      -0.25851586       0.57034367      -2.17162156       0.10699833
C       19.00748683      12.48569329       4.37166743      -0.86818270      -0.38388988      -0.74163077      -0.08094022       0.52939427      -1.31796038
F       20.23316326      12.66108672       4.92493308      -0.43873698       0.29958701      -0.64761943       0.59944499      -0.37423760      -0.72638619
F       19.07199332      11.72266777       3.19557624      -0.34362047       1.29060645       0.74344279       0.21695146       1.02970374       1.42725027
F       18.58236888      13.74537109       4.02440236       0.57410260       1.29185589      -2.30591482      -0.28683931      -0.81231868       0.07298591
N        5.65072972      12.63915092      18.16806527      -0.44823550      -0.20818609      -0.10125695       1.05671585       0.01939982       1.78038824
C        6.48697345      13.32776230      18.98125297      -0.43998318      -0.18782347       0.55967718      -2.56902933      -1.73334098      -1.53474176
N        7.08009827      14.05698842      19.67190520       0.30041678       0.23094670      -0.33314464       1.09800017       0.76873028       0.60560417
S        4.85848191      11.33184029      18.78993228       0.37011594      -0.75973655       0.18830930       0.19945467       1.18208778       1.06843615
O        3.76865328      11.14189870      17.84316436       1.18926278      -1.11293917       0.63810633       0.34421894      -0.14930484       0.22488987
O        4.54246296      11.39741643      20.25233792      -0.30492614       0.52689226       0.38623345       0.71270037      -0.22673993      -2.08849287
C        6.16169899       9.91627636      18.48424554      -0.16545598       1.13912678      -0.46409119      -0.46544671       0.15956295       0.18992120
F        7.26746907      10.13705947      19.21886654      -1.09732287       0.90125979      -1.31489418       0.22424327       0.25452709      -0.53303957
F        5.66852549       8.72875909      18.86198218      -0.65165767      -1.08451921       0.61413733      -0.29763615      -0.01113460      -0.22785702
F        6.43519818       9.88764992      17.12934089       0.61386018      -1.28480879      -0.49534958       0.08559661       0.33126289       1.05316114
N       17.12175365      23.88339563      13.18437915      -0.70389454       0.01101997       0.31367610       0.80030960      -0.11536310       0.32561523
C       15.86574785      23.72758175      13.35043128       0.41889453       0.92656706       0.05915206       1.17666185       0.11228845      -0.20359868
N       14.78446256      23.35873702      13.55554411      -0.32348472      -0.66683595      -0.64902269      -2.54417324      -0.55573273       0.63203162
S       17.90132863      25.04258003      12.53514882       0.99667781      -0.47590620      -0.31343045       1.37662387       1.11507988      -1.13165045
O       17.37927079      25.53842987      11.24146571      -0.47529749       0.35319113       0.24171995       0.39995542      -0.58104104       0.95423228
O       19.30027231      24.50548746      12.53198811      -0.53871148       1.24229236       0.61609706      -1.21536911       0.69619107       0.23691823
C       18.09905600      26.71077189      13.55103408       0.40180383       0.42495612      -0.12504507      -1.59020793       0.35205790       0.05635979
F       18.28209742      27.75328790      12.64517798       0.31461002      -0.44592760      -1.82792003       0.87990206      -1.15749133       1.40032637
F       16.85300125      26.98870646      14.11909352       0.62774240       0.67680669       0.48628356       1.34738040      -0.60366321      -0.14990211
F       19.02711223      26.54592208      14.55270716       0.54614095       0.46319609       0.37245975      -0.81402153       0.80128396      -1.36142492
N       12.60851356      12.22781483      25.76728835      -0.75399672      -0.17522822       0.42334798      -1.16283834      -1.39995503      -1.34284520
C       12.28218686      11.89705205      24.53765823       0.26829430      -0.11594851      -0.48832743       0.46736899       0.80663526       1.52516437
N       12.01906212      11.53061173      23.44814510       0.19494329      -0.38236814       0.07907433      -0.27400404      -0.30929196      -0.27430624
S       12.74113854      13.70157033      26.34889793       0.35279804      -0.16213455      -1.17306686       0.41041544       0.20569281      -1.03272092
O       13.23226105      14.61357967      25.33539450      -0.74444563       0.74037997      -0.63953631      -0.62029451       0.14252892       0.19280685
O       13.55882008      13.43729734      27.48962990      -0.20420280      -0.45297898      -0.86381458       0.72257853       0.33363408       1.53837991
C       11.08830240      14.23235852      27.20315149      -0.57591863       0.57123330       0.21271133       0.99681002       0.48830947      -1.59093845
F       10.20026911      14.65320525      26.26973989       0.35320095       0.28143743      -0.05941174      -0.34855047      -0.93519276       0.07819277
F       10.65383730      13.25269566      28.00204927       0.31778789      -0.62782733      -0.56376708      -0.56356663       0.00466054      -0.16763306
F       11.40845182      15.31180049      27.90083102      -1.50129370      -0.93823873      -0.04058826       0.28525645       0.62032926       1.24051487
N       16.55479353      10.73015465       9.38105670       0.21379768      -0.41662240      -0.10594313      -1.58542502       1.14540601       0.35700396
C       17.52422109       9.94262779       9.09618177      -0.02340174       0.40005489      -0.78387596       0.64274728       0.11783783       0.81133622
N       18.38495486       9.16274296       8.89533841       0.63956376      -0.08805774      -0.03183071       0.38052768      -0.23858859      -0.60089743
S       16.40192336      11.91104424      10.54760671      -1.57669942      -0.10098207       0.28225249       2.13926077      -1.54886031      -0.21611774
O       17.77357396      12.24769168      10.96930963       0.55191475       0.14578664       1.19138276      -1.20607793       0.49398351      -0.51938701
O       15.53544623      11.45911012      11.61479503      -0.40252667      -0.12607418      -1.30879117      -0.39340371       0.06863704      -0.18462434
C       15.48123894      13.31580920       9.68319386      -0.08825422      -0.04780023       0.25802417       0.18840617       1.91270447      -0.67142004
F       14.82980017      14.14604259      10.58628116       1.26084034      -0.77785081       1.07700662       0.22112016      -1.15698874      -0.97761512
F       16.30405297      14.13158130       8.93996847       0.10074794      -0.62933029       0.78364969      -0.04604377      -0.66846943       0.80369222
F       14.58790501      12.82624108       8.76910158      -0.06013751       0.03370289      -0.43816297      -0.24206896      -0.11681909       0.53465021
N       10.66008790       9.43798972      18.18844246      -0.44207621       0.38986472       0.44587293      -1.20787346      -0.86453402      -1.10644841
C       10.72491040       9.95221442      19.34618751      -0.52563740      -0.19691752       0.38958511       0.63604474       1.37231159       2.75889897
N       10.80927089      10.49055238      20.40955227       0.13409430      -1.23138756       0.14189397      -0.49584821      -0.37587464      -0.75191581
S       11.98615119       9.29368461      17.38504336      -2.14693426      -0.94868930      -0.46460755      -0.41318375       0.45852014      -2.16966915
O       12.99126923      10.24284490      17.75217802       1.03362515      -0.36957263      -1.05992033       0.85270870       0.31636888       0.79648906
O       11.64431012       9.30397051      15.97087479       0.61305137      -0.21146327       0.32389225      -0.15991262      -0.41518879       0.07763277
C       12.57034554       7.57070643      17.62471153       0.70436035       0.23273201      -0.77412585       0.90251833      -1.91712451       1.09746337
F       11.80338990       6.49152762      17.28150966      -0.45165507       0.30322492      -0.46722911      -0.21003136       1.11027014       0.12870909
F       13.70340670       7.46541115      16.90192715       0.96046247      -0.50892499       1.03753882       0.40045667       0.14240791      -0.25071064
F       12.91894294       7.41534193      18.95464289      -0.67249847       1.33720470       0.36144628      -0.28522104       0.16011028      -0.65970123
N        9.11831770       7.12146501       2.07229519       0.47198790      -0.55814699       0.17943346      -1.49187374       0.10011248       2.42812109
C        9.72654589       6.82607914       1.09100583       0.50664642       0.59134672      -0.32061571      -0.01178328       0.53222656       0.04733553
N       10.32810628       6.72469146       0.05785032       0.08254135       0.00546881       0.74003056       1.73273218      -0.67829025      -2.39541984
S        5.28722685       5.51971702       4.74580044      -0.36340513       0.82206167      -0.71775013      -0.47350466      -1.77741528       0.81498975
O        6.34036155       6.07016852       5.61054884      -0.14651805      -0.28886022       1.22794578       0.07266717       0.62787563      -0.09812102
O        4.73816328       4.24161018       5.29405713      -0.59181956      -0.21985883       0.18019271       0.26011175       1.18065345      -0.84397775
C        3.54836028       6.71763880       4.64918582       0.86183175      -0.04796265       0.33241923       1.58433080      -1.98269713      -1.01016700
F        2.66714261       6.17267118       5.43938042       0.55516377      -0.11389678      -0.51750687      -0.96571243       0.25043285       1.26277626
F        3.96130007       7.91875057       4.95329477       0.14775392       0.47049801       1.47860551      -0.41705880       1.16744614       0.20821975
F        3.13645159       6.56360812       3.38057710      -0.54516626      -0.13157202      -0.85605877      -0.03826200       0.66708094      -0.32372054
N       16.08222638      15.02799687      18.84256431       0.41268730      -0.95931692      -0.68554001       0.76634163      -1.13738012      -0.85181439
C       15.29381903      14.02831118      19.18164200       0.63020835      -0.74376995       0.70191487      -1.15957665       0.60923052       0.98794377
N       14.40335706      13.42902497      19.71467228      -0.23784771       0.51286144      -0.38463276       1.21566045       0.26882544      -0.78777105
S       17.19104069      14.63467679      17.65980061      -0.05533781      -1.30024775      -0.54029677       1.08926046       0.45105249       2.11022353
O       17.75201612      15.86945582      17.13786077      -0.18010544      -0.20462318       0.30163499      -0.55146712      -0.17022003      -0.22585306
O       16.84301922      13.51201471      16.84165343       0.58830250       0.01669774      -0.50768749      -0.57063836      -0.17834841      -0.66270012
C       18.77032138      13.90359010      18.62787634       0.24419830       0.77770015       0.49050836      -1.30757332      -0.45975760      -0.91693920
F       19.11386738      14.45889693      19.77871733       1.98901247       0.79303772       0.29417470       0.16170646       0.31243232      -0.24135287
F       18.40558622      12.59319571      18.87462245       0.14043649      -0.74322639       0.63883833       0.55448294       0.29560718      -0.15187883
F       19.76823132      13.95062210      17.69792865       0.53068992       0.29616310      -0.36036181      -0.15718043      -0.20944995       0.82580632
N        4.24636795       6.08240288      14.76012319      -0.21970506      -0.58530484       0.58700019      -0.03796234      -0.40722671      -0.05177832
C        2.99688727       5.68965011      14.69203437      -0.44195449       0.40674287      -0.92727620      -0.98479617      -1.70484936      -0.76031893
N        2.03424741       5.03465029      14.45422782      -0.31483845      -0.49063975      -0.71773900       0.92298907       0.94131112       0.44546080
S        4.44554334       7.39321899      15.56614023       0.65292539       1.49732612       0.76256614       1.15631461       2.77875066       0.77804840
O        5.87409446       7.70998980      15.77265402       0.24802783      -0.93005960       0.03953025      -1.49749744      -1.17205513      -0.49940559
O        3.53110952       7.72409476      16.65115684      -0.13670476       0.42938963      -0.44877238       0.17672522      -0.97061831      -0.18107912
C        3.92922238       8.74163007      14.32102947      -0.21115796      -0.01122121      -0.21457164       0.72901428       0.90111864       0.56980455
F        2.86420263       8.52798871      13.54056169       0.25363345      -1.19916112       0.28550691       0.08186356      -0.09970032       0.29617992
F        3.69498306       9.82337015      15.16328273      -0.57331901      -0.81598042       1.13870769       0.08538877      -0.34045973      -1.23377717
F        4.99558791       9.05903654      13.50258124      -0.69219158      -0.53648579       0.92687792      -0.64230728      -0.08065590       0.34662980
N       19.04422602      24.66656884      17.70883032       0.00663096       0.16376120      -1.02815194      -1.31154275       0.25680083      -0.33891764
C       20.25961689      24.57652294      18.06566527      -0.44719431      -0.57310715      -0.04530990       0.20377153      -0.09935414      -0.32299665
N       21.40865155      24.66155460      18.28431988      -0.69420539       0.33376940       0.02721887       1.19068861      -0.16974691       0.48339957
S       18.07314787      23.43127623      17.48572602      -1.58494122       0.38669148       1.46315916      -0.93452972      -0.71620286      -0.59098190
O       17.06489367      23.70038841      16.47241018      -0.51251500      -0.60764583      -0.02074992       0.79154462       0.34934244       0.97648019
O       17.71369131      22.76914648      18.72886696       0.06076734       0.11021885      -1.03107704       0.13387477       0.47585565      -0.26113167
C       19.07005535      22.12823869      16.58918375       0.93031191      -1.05271023      -0.02813442      -0.72788000       0.95650142      -1.63811374
F       20.19738649      21.80879319      17.19997109      -0.35168591      -0.29128556      -1.09505711       0.41362223      -0.35627675       0.00509302
F       18.25056490      21.07860569      16.42237378      -0.43619282      -0.94335692       1.18403171       0.50091624      -0.20809174       0.00369685
F       19.39002863      22.62705742      15.27227470       0.76805227       1.53525425      -0.47571619      -0.14470585      -0.59044945       1.41204083
N       11.32966215       5.40994393      22.47800694       0.25092635      -1.08688522      -0.09071080      -0.37854877       0.74350810       0.55276996
C       11.40129873       4.43564512      21.64390330      -1.05374726       0.35603714      -0.65510887       0.40888542      -1.49265552      -2.04829788
N       11.58376792       3.55471960      20.86828369       0.74587520      -0.90049577       0.49682510      -0.10976633       0.38434017       0.53981119
S       10.41360616       6.72058872      22.09625679       0.67749555      -1.36694645       0.73020044       0.50057328      -1.60902035      -0.38392988
O       10.61884810       7.27511355      20.80863680       0.01957807      -0.58776117       0.38804184      -0.19467230      -0.02573121      -1.03242946
O       10.66738541       7.53599465      23.22507797       0.03178912       0.69058581      -0.69075364       0.27467450       1.62160194       1.77229583
C        8.65592790       6.12603484      22.40019461      -0.11421409      -0.10010389       0.09143618      -0.71313244      -0.87491214       0.06135675
F        8.06417566       5.14729655      21.67599445      -0.60249029      -1.31313528       0.05961753       0.75354433      -0.09024464      -0.74787706
F        8.54700667       5.72199561      23.67742129       0.50974816      -0.33706516      -0.43310975       0.29409063       0.09857164       0.85210305
F        7.92068171       7.21509527      22.24014868      -1.19043739      -0.95492153       0.12579925      -0.68581939       1.23866594      -0.12822062
N        7.08175878      20.41597804      12.96736165       0.01323172      -0.08119091      -0.04423979       0.87505031       0.35512578       0.54003400
C        8.24900748      20.00670351      13.41607062       0.13236852      -0.78803244       0.85907272       0.90633214      -0.94744587       0.37708098
N        9.26840386      19.45555116      13.76778682      -0.20213491      -0.39511311      -0.26859136      -1.90949512       1.27906168      -0.86072320
S        6.56672447      21.83023516      13.57991343      -0.00192933       0.30617372      -0.47369058      -1.77842379       1.22007155      -1.28687561
O        5.42947835      22.30612046      12.73672471      -0.35705654       0.30916352       1.19728512       1.72291327      -1.12799120       1.38954556
O        7.57754735      22.80686246      13.97491229      -1.58774853      -0.23650186      -0.53206420       0.09867160      -0.38722211      -0.45493722
C        5.92339399      21.42376621      15.30165380      -0.03721391      -0.86993489      -0.36999634       0.37912151      -0.33006775      -0.40257588
F        7.03048454      21.06313579      16.04243931      -0.26917047      -0.48917675      -0.31036363      -0.00705461      -0.16349679       0.05690685
F        5.41096469      22.49747342      15.85726505       0.88019476       0.78384905       1.29416816      -0.40568304       1.12097478       0.49735844
F        5.03394762      20.44275073      15.34218539      -0.64852091       0.78418265      -0.50512893      -0.25942469      -0.69598508      -0.15408248
N       21.16481181       4.24710680       6.02189873      -0.78674610      -1.16393147      -0.09778834      -1.80748558       0.43599033      -0.27285773
C       19.82585543       4.45026100       6.06353172      -0.32051639       0.03480204       0.46102130       2.48225617      -0.83831912       0.11525349
N       18.66297083       4.57767641       5.99105388      -0.32294200      -1.01321374      -1.00582753      -0.58623403       0.43835962       0.26268402
S       22.00072022       3.70317734       7.28938862       0.43360150      -0.19843993       1.35411673      -2.72964072       0.35238960      -0.00847658
O       21.14274052       2.92858265       8.19254055      -0.36077192       0.10739598       0.50798693       0.49793610      -0.02030944      -0.21413372
O       22.69272180       4.82997799       7.81610587      -1.24806510       0.28028165       0.20798617       1.20613861       0.82083672       0.72657567
C       23.11921721       2.47819830       6.52986299      -0.44858788       0.35245090       0.35592502      -0.31379831       0.21860956      -0.91156328
F       22.32058362       1.57170922       5.84286806       0.29480692       0.63939970       0.06723553       1.11775553       0.67866075       0.09056579
F       24.05886894       3.10179658       5.74594001       0.02898099      -0.00052610      -0.64224648      -0.86936283      -0.94095296       0.34645534
F       23.69429804       1.85159830       7.54856300       0.26553040       0.00246727      -1.40839216       0.77828288      -0.63450152       0.21581131