2000
Lattice="33.97 0.0 0.0 0.0 33.97 0.0 0.0 0.0 33.97" Properties=species:S:1:pos:R:3:momenta:R:3:forces:R:3 energy=-10925.283450214163 stress="0.001739900792017579 -0.00032726157223805785 0.00026457724743522704 -0.00032726157223805785 0.001305299811065197 -0.0006777664530090988 0.00026457724743522704 -0.0006777664530090988 0.001064092619344592" pbc="T T T"
Na      10.08008713      23.52325250      10.67326409      -0.96658520      -0.55391951       1.23768915       0.25045925       0.22819754      -0.22335002
Na      21.11259762      15.49697403      29.68141323       0.13501373      -1.22649007      -0.61534708       0.27012816       0.02282375       0.28907436
Na      -4.05691575      17.71581240      36.30141157      -0.26738779      -0.71526782       1.25450181       0.12970327       0.08177193       0.12681423
Na      17.46343177      15.71756366      30.30921010       0.13109278       0.86242140      -0.30976015       0.51806951      -0.00063478      -0.13466308
Na       8.42770448      19.33244029      17.09963647       0.60079157       1.16601100      -0.72803224       0.31651813      -0.50680494      -0.52008379
Na      30.99625511      18.72077496       8.73596018      -0.47053205       1.25257210       0.92476193      -0.12562875      -0.00878569      -0.07235673
Na      21.56539315      11.75152795      33.12992900       1.35311113       0.09500988      -0.54141922       0.04544416      -0.11980207       0.43583557
Na      20.83928081      10.73277585      17.31322255      -0.14148411       1.09992807       0.57588010      -0.04645553       0.04479368       0.13100401
Na      22.04874326       5.70340019      18.62354181       0.69239013      -0.42945774       0.17980018       0.20858018      -0.16956955      -0.07207157
Na      -4.83684731       4.68878430      19.80686715       0.01829294      -0.31735183       0.00060654      -0.09644298      -0.00542376      -0.10550575
Na      18.04294337      21.78221262      17.20584145       0.24124859      -0.99874710      -0.85932359      -0.11995953       0.22401066      -0.07983157
Na      26.65039400      22.19587150      22.03425484      -0.50775353       0.92615394       1.70077624       0.18278930      -0.10606215       0.08226620
Na      12.78345604      13.85622883      11.48056537       0.77938339       0.69996942       0.63226987       0.23986782       0.22272314       0.44298095
Na       8.86277047      18.93488989       6.56265545       0.20476912      -0.90449997       1.19481770       0.10683603       0.15185082       0.10884649
Na       2.62705489      12.42162486      18.62331440      -0.26542800      -1.24333168      -0.58934393       0.23367977      -0.13576037       0.34073472
Na      29.87748757       9.17761015      20.39929220      -0.04700072       0.27344967      -0.21561841      -0.26192084      -0.23621327      -0.16512932
Na      22.74030375      30.75083100      14.18495720       0.85032844      -0.18617053       0.58313504      -0.67049640       0.44225183       0.02553147
Na       2.95940025      10.20398016      10.97060029       0.38082048      -0.76253359       0.21178480      -0.06097182       0.09300163      -0.23129155
Na      19.76323193      10.64179511      21.62205865      -0.69614582      -1.60919548      -0.45851423      -0.02034920       0.08145574       0.05825413
Na       9.98519970      22.20216087      26.18338384      -0.48505247       0.14874071      -0.82050657       0.01005498       0.05980075      -0.15157479
O       28.90680153      19.43885646      26.85785049       0.78570867       0.17941718       0.10059726       0.28817555      -0.80425316       1.11106479
S       29.39049846      20.02952984      25.67286463      -1.21955877       1.27995674      -0.92843681      -0.36354691       0.02394099      -2.60296392
O       30.66734574      20.65156656      25.50320410       0.61031454      -0.20717164      -0.68615016       0.26031807      -0.16088660       0.37512296
N       28.24432091      20.83831866      24.92074818      -0.73852868      -0.77228976       1.35054828      -0.48974249       0.90545017      -0.48841649
S       27.19415310      21.87819954      25.57849827       0.30636590      -0.52757071      -1.71105352       0.50917584      -1.58039045       0.83029848
O       26.48349367      21.18095803      26.66396483      -1.10929700       0.06927832      -0.63249437       0.31171173       1.36508644      -1.05289423
O       26.44659556      22.57163780      24.53099474       0.76969624       0.27524723      -0.98097778       0.81198257      -0.24420975       0.84762496
F       28.21624776      22.94494875      26.36935378       0.83207202      -0.83949735      -0.14894853      -0.95601195      -0.51325238      -0.73169631
F       29.47902402      18.74698238      24.49230904      -0.07375663       0.47801498      -0.51053321       0.15424384       0.93048525       1.30687237
O       24.54015419       5.85019222      18.66639885      -0.68317962       0.13779664      -0.09487634       0.98785573      -0.36206445       0.98768121
S       25.63201144       6.18537532      19.58049573      -0.24967495      -0.04339879      -0.38352332       0.31321320      -0.10253610      -1.72592568
O       25.46516754       7.34925153      20.39267851      -0.65218048      -0.87102560      -0.48956421       0.00405871       0.17823765       0.47194996
N       27.09279998       6.05240430      18.81720778      -0.54434897      -0.05519924      -0.49197010      -0.63702250      -0.15565048       0.69825453
S       27.89374297       7.22765448      18.16115602      -0.29468441       0.88912393       0.29277526      -0.91924369      -0.63631773       0.77341533
O       28.12611911       8.37703195      18.96809878      -0.67019118      -0.14738567       0.20249760       0.79007518       0.57558435       0.99007833
O       27.45083790       7.54460019      16.85287611      -0.41545703       0.36434537      -1.28728583      -0.16015506       0.03905482      -1.82471526
F       29.28021764       6.40984582      17.94811252      -0.23917643      -0.44200412       0.12749538       0.10852041       0.18309674       0.13096230
F       25.92828623       4.95735700      20.57079214       0.16282453      -0.67339493      -0.40561737      -0.59201598       0.10983130      -0.27212676
O       12.77212965       5.29917686      25.02901736      -0.12373027       0.06277465      -0.42189372       0.17624490      -0.65806967      -0.95709002
S       13.37923738       6.48074539      25.53183369      -1.09105825       1.81372999      -1.61708216       0.57129592       0.36073864      -0.18686961
O       13.08466783       7.78911402      25.04239001      -0.59953298      -0.94992758      -0.29321101      -0.35796452      -0.29353154       0.07041296
N       15.03309451       6.58451470      25.67184424      -0.10628919       1.21722259       0.21382875      -0.69275403      -1.05341160      -0.00546732
S       16.00732376       5.24425279      25.91912698       0.80978977      -1.05869248       0.53996654      -0.61100787       0.78851765      -2.87478876
O       15.70589707       4.20518849      24.95730357      -0.35792684       0.62329222       0.79201979       0.12404073       0.46154323       1.08017230
O       16.40542007       5.06594819      27.25001202      -0.07041716      -1.28929519      -0.61859942       0.11066698      -0.51222932       1.74496567
F       17.27346815       6.00368953      25.25608184       1.07990796      -0.06079171      -0.66392763      -0.13249820       0.19710624      -0.04278520
F       12.89923057       6.42425684      27.03946524      -0.11171843       0.23356841      -0.29743836       0.06187934       0.50146192       0.92762244
O        8.50777719      27.96617294      11.23169689       1.22244171      -0.61846941       0.67589011       1.46891510      -0.63441461       0.67639768
S        9.53381694      26.97463085      11.56357809       0.22495627       0.42256114       0.08725170      -2.17739773      -0.22928664      -2.64081669
O        9.81183803      25.98737184      10.50429914       0.10263438      -0.00803158       0.06335101      -0.17595910       0.32342777       1.13269985
N        9.22479005      26.40090362      13.01314041      -0.61544992       0.61750242      -0.57270085       0.65227747       1.46689880      -0.41546202
S        8.67789077      25.02626741      13.37228170       0.34557225       0.58003293       0.11254832       0.98788965      -2.05432963       0.34434575
O        8.66016416      24.93773262      14.79110805       0.08557600       0.80212805      -0.25089304      -0.29477796       0.02263055       0.75768852
O        9.29137721      23.90912216      12.65865961      -0.35080554      -0.50139747       0.81469273      -0.39159009       0.29508758       0.19093576
F        7.13990365      24.91715968      12.92986077       0.17978776      -0.14218595      -1.60571974      -0.56522810       0.33768946      -0.26674423
F       10.93630038      27.69667787      11.68368745      -1.22019952       0.08115829       0.54304341       0.27604958       0.43639851       0.57991540
O       15.78167965      15.57112245      14.93592600       0.60490059       0.09580704       0.58503979      -0.05980994      -0.85488969      -0.04861577
S       15.18590851      14.34517197      14.45683804      -0.44352269       1.58893449      -0.56098684      -1.79946971       2.16665697      -1.81669998
O       14.91494662      14.19661753      13.02782859       0.28559177      -0.77540714      -0.32162553       0.05394287       0.17139909       0.61603308
N       14.00995714      13.84113628      15.35909397      -0.22788320       0.56869032      -0.28876743      -1.15421116      -0.19090430       0.75965500
S       12.43054101      14.05860919      15.21452773      -0.43465215       0.91115125      -0.43600059       1.66344821       1.87436378       0.69715232
O       11.63583547      12.96839181      15.62568625      -0.09765059      -1.06482024      -0.10271881      -0.73492658      -1.64183819       0.57902092
O       12.08041730      14.65668362      13.96141932      -0.41485122      -0.95605595      -0.27265517      -0.24923256       0.59906816      -0.36667386
F       12.07823064      15.16600844      16.47681339      -0.01218969      -0.32720708      -0.26649142       0.49444234      -0.58915907      -1.23919034
F       16.15241164      13.19199725      14.70050179       0.25591310       0.00420178      -0.54596889       1.69303119      -1.61490941       0.83031726
O       21.98592127      20.17165368      16.27138253       0.06734485      -0.30390653       0.35666108       1.94565713       1.07976341      -0.40361470
S       20.72717166      19.95129607      16.83969894      -0.94564124      -0.66474165       0.05888227       0.53296381      -0.94323498       0.47719663
O       19.58524718      20.40610613      16.15258532      -0.31006068       0.24365896       0.50118735      -1.75164354       0.59671110      -0.42054614
N       20.70054972      19.92308448      18.45786552       0.72900136       0.43901128      -1.32284222       0.28140706       0.05923729      -0.07860561
S       20.57578575      21.20913119      19.37015913       0.68046384      -0.78784169      -0.46535037       0.47632483       0.66650474      -1.52340341
O       21.11796638      20.93802596      20.62034634       0.09456761       0.66179250      -0.13709663       1.32969296      -0.49410155       1.70353556
O       19.28907470      21.79503596      19.31318384       0.51917994      -0.47894937      -0.68265870      -1.07319939       0.48336351      -0.62081397
F       21.60944214      22.29709158      18.62484452       0.31747859      -0.39830686      -0.29465499      -0.39049459      -0.61582041       0.51364881
F       20.66756450      18.39112492      16.81614579       0.18266884       0.19323082       0.12439673      -0.66156298      -1.22309852      -0.12994939
O        5.41506769      13.17154223      23.74993892       0.07816556      -0.18911780      -0.77262746       0.15831904      -0.31568485      -0.82928240
S        5.32870136      14.20837388      24.71917402       0.89682868      -1.48835761       0.23885415       1.14702988       0.72809231       0.86203349
O        5.54713203      15.59643315      24.41667123      -0.14346367       0.35884560       0.90165463      -0.06371246      -0.32856286      -0.30477726
N        6.02419018      13.79075750      26.12548380      -0.00464202      -0.37733662      -0.77071822       0.65982467      -0.38570628      -0.07450331
S        7.60433780      14.11276690      26.41023678       1.51487933       0.44500967      -0.01559300      -0.79493290       0.21591525      -0.29856887
O        7.79942870      15.41442936      26.98658280       0.43069573       0.57628148       0.82689661      -0.07191385      -0.10610381       0.36545408
O        8.48915667      13.73311141      25.34556371      -0.43132225       0.38866558       0.35106116       0.10111973      -0.47161508       0.06480996
F        7.72882155      13.02949889      27.58980454      -0.45777734       0.07079983      -0.36489884       0.13087173       0.31889996      -0.32777211
F        3.89746020      14.08036875      25.28029224      -0.11047485       0.37187805      -0.25118382      -1.31528807      -0.00000794       0.39951253
O       30.17164449      10.55026726      18.55646555       0.09182240      -0.07329292      -0.35297920      -0.22012776      -1.79779291       0.98162150
S       30.77492957      11.77409927      18.21202366      -0.09042922       0.68727947      -0.02320786      -1.15145874       2.19316435       0.11955822
O       30.06524396      12.54568950      17.25297099       0.11159205       0.15413773       1.29609785      -0.24942452       0.28937465      -0.90567058
N       32.29009882      11.67875411      17.98875291      -0.28881323      -0.80316551       0.54198305       1.71183014       0.23024030       0.27697632
S       33.19318651      13.01923297      18.16902796      -0.21495137       0.86502324       0.66524073      -0.08108335      -0.19742312       0.46942586
O       32.63908961      14.14744104      17.51290733       0.70577584      -0.21290505      -0.05166636      -0.57064760       0.84883070      -0.39992169
O       34.56469579      12.72847756      17.93539505      -1.01451923      -0.49113490       0.33322541       0.57852125      -0.61093986      -0.28472105
F       33.20490264      13.43946980      19.74519248      -0.18804941       0.85915385       0.68305201      -0.31595942      -0.31875348      -0.10635541
F       30.64189572      12.79407577      19.56803041      -0.07717812       0.46300183       0.08535202       0.17518699      -0.76026857      -0.42535338
O       28.49791515      23.27554477      31.08836350       0.41388589      -0.32882567      -0.67598775       2.14049530       0.26595798       0.33126378
S       27.13820196      23.25835564      30.78589467      -1.31067823       0.15436322      -0.44329021      -2.71113443      -1.47090495       0.51475477
O       26.40785916      22.01331252      30.64458629      -0.66730091      -0.02225316      -0.25890348       0.30638137       1.36688352       0.31435969
N       26.81747384      24.13364646      29.46346253      -0.15600576      -1.21749923       0.03736682       0.19352332      -0.32521480       0.47276574
S       27.79422002      25.26185674      28.81121412      -0.42882961      -0.45994527      -0.49998714       1.25907195      -0.38592184      -1.36340177
O       29.12394137      24.85824236      28.49729562      -0.13501315       0.66086041      -0.45069350       0.14407396      -0.15446144       0.74282962
O       27.54267718      26.51606258      29.42733624       0.80953008      -0.01264629       0.24475765      -0.47051433       0.63693517      -0.11728966
F       27.09624669      25.06081494      27.39061267      -0.16864283      -0.72003346      -0.62665893      -0.72943109       0.81865329       0.17737296
F       26.43355680      24.15391507      32.00243753      -2.15846508      -0.08148555      -0.20418870       0.28776076      -0.56163323      -0.87686688
O       30.70241541       7.36865612      23.31505850      -0.69245481      -0.21451009       0.26988074       0.37468490      -0.64536810       0.77581137
S       30.79370498       6.41771258      22.25997867       0.16446458      -1.72744111       1.14812896      -1.46865630      -0.29648256      -2.10563922
O       30.14267356       6.86805683      20.99767741       0.22199279      -0.39729276       0.50755573       0.41311306      -0.62205678       0.76941764
N       30.56153329       4.84340510      22.50319578      -0.11854342       0.06995075       0.03331134      -0.81749094       0.44596949       0.95695138
S       29.06473530       4.30856089      22.96099007       0.25978296       0.17284805       0.01366296      -0.00387197       1.19530952      -0.55063546
O       29.03399524       3.11176668      23.71596759       0.57417058      -0.99054037      -0.33214971       0.72312915      -0.57739496       0.81899840
O       28.17237237       4.35171522      21.83890542       0.01103546      -0.00255628       0.13379056      -0.34547263       0.21325450      -0.77951801
F       28.36244425       5.46671568      23.93438524       0.68203099      -1.15114606       0.40945175       0.65411568      -0.23559555      -0.08970511
F       32.29864191       6.27718604      21.81602828      -0.57885971      -0.24984259       0.93657376       0.53719205      -0.00095591       0.17522921
O       31.99907030      17.79469434       6.81834936      -0.33043918       0.33580731      -0.00619089      -0.12664172       0.13369909       0.32854876
S       32.50561913      18.10048958       5.50953496       1.72059588      -1.20085369      -1.80169266      -0.17092441      -0.79219669      -1.02270031
O       33.16772404      17.04587375       4.78812448      -0.72132862       0.08284395      -0.58699256       0.11144450       0.68203086       0.30937180
N       33.14766552      19.57500621       5.34567726       0.44702224       0.23213626      -0.46428561      -0.34019229      -1.09672570      -1.01793849
S       33.21389033      20.39789697       6.67791862      -2.18220330      -0.06782866       1.28031838      -0.66362095       0.81956422       0.60091943
O       34.12658996      19.85548579       7.60810491       1.20891573      -0.16723657       0.86683425       1.19950712      -0.07597117       0.86246431
O       31.92265765      20.78450382       7.18061330      -0.43987391      -0.37239492      -0.64816313      -0.20667788       0.35823855      -0.20121385
F       33.90336538      21.68820393       6.00584622       0.83236728       0.82561690       0.14874378      -0.28124169      -0.22464700       0.32576007
F       31.13107873      18.29350949       4.58362339      -0.92465519       0.55924284       0.21614309       0.15919539       0.21919027       0.17462586
O       14.72194111      16.00076208      33.62451978      -0.36986084      -0.32561202      -0.12300704       0.12099396       0.55974638      -1.78484929
S       15.08861726      16.78220675      32.44761346       0.24319780       1.87881556       0.06375939      -0.26183072       0.20947990       2.06004024
O       15.65153260      16.23289829      31.25420332       0.25588515       0.02058750      -0.71856320      -0.26678234      -0.52099049      -0.09840612
N       15.86726401      18.08232208      33.02823324      -0.93683797       0.47288009      -0.17697583       0.97870642       0.32489723      -0.61939502
S       17.36252247      18.52197520      32.54587819       0.12777344      -0.56161696       1.50930400      -0.15977339       1.96080363       0.09344381
O       17.43730078      19.94614538      32.15411414      -0.42056862       0.59011841       0.94229804      -0.47964928      -2.04305315       0.36652899
O       18.07842049      17.54009188      31.77534425       0.08705424      -1.44235493      -1.58398871       0.06331284       0.02899782      -0.18538882
F       18.12890401      18.56498823      33.96973919      -0.39957370       1.49881088       0.75768898      -0.24686565      -0.30834448      -0.25008428
F       13.77411699      17.50081054      31.87299538       0.02358248       0.16431070      -0.05909688      -0.10480978      -0.10701402       0.33881831
O       22.80806563       2.77428667      14.99464525       0.15257696      -0.23639850      -0.08091885       1.45498240      -0.60226214      -0.55499238
S       21.75581134       3.59911058      15.41798272       0.75927704       0.45874551      -0.02883175      -1.65820491       0.03307632      -0.57705086
O       21.87582570       4.42541784      16.56374281       0.33501874       0.34422561      -1.80335710       0.34748751       1.05501091       0.94577241
N       20.41792482       2.78809417      15.61423653      -0.48450305      -0.03906502       1.19713260      -1.17419636      -0.59632075      -0.31860626
S       19.42786214       2.28694456      14.38481868      -0.94985380      -0.64850254      -1.05128094       1.34395969      -0.05348643       1.04739308
O       20.03226849       1.23071936      13.59461907       0.26192506       1.08505429      -0.61692105      -0.56702417       0.84241462       0.13503367
O       18.69420624       3.40231885      13.86131842      -0.28619387      -0.53911040       0.41428815      -0.19203444      -0.52408242      -0.51341927
F       18.41906732       1.53559721      15.38358775       0.58755143      -2.24371623      -0.70786629      -0.05857812       0.01038698      -0.07430746
F       21.39724834       4.59026600      14.16716024       1.50562682      -0.08928471       0.91667471       0.31243497      -0.07531592       0.37493700
O       20.75328689      24.26049698      14.69327092       0.36908939      -0.56558367      -0.68342965       1.18242550       0.02380922      -2.24909234
S       20.35885659      24.30945774      16.02920828      -0.27095798       0.47088269      -0.14622156      -0.62084746      -0.25301015       2.85871077
O       19.85220030      23.12302991      16.64597082       0.04045988       0.11010220       1.11354623      -0.95936787      -0.49282327      -0.12719557
N       19.61004959      25.64464294      16.42215041      -0.94553259       0.23181610      -0.33962303      -0.42163360       0.39416271      -0.09205557
S       18.00295509      25.91288496      16.13035316      -2.22599562      -0.34274953      -0.96825121       0.61729240      -3.51720047       1.22588694
O       17.24422062      24.69773228      15.82632312      -0.00939105      -1.98071440      -0.88486269       0.77810413       1.50335860       0.15151776
O       17.87123951      27.13456250      15.45945417      -0.60220039      -0.67175899      -0.35086430      -0.44807276       1.61039901      -0.95593643
F       17.61608782      26.16791822      17.66069470      -0.03057086      -0.18651805       0.23671539      -0.08774552       0.29778337      -0.01410533
F       21.65947440      24.46215023      17.00064650      -0.59354721       0.34342699      -0.32092141       0.18490694       0.84517252      -0.78207928
O       12.61086461      10.97188464       5.46251372       0.00696174       0.99732256      -0.52530363       0.25291753       0.03208894       0.49268565
S       11.79450087      12.12115613       5.73014010      -0.34254147      -0.70646605      -1.22084747      -0.71307814      -0.12240945       0.07410175
O       11.95637368      13.36191841       5.07445072       1.06898390      -0.10593222       0.38701072       0.65953511       1.01262069      -0.82859254
N       11.35201855      12.51808552       7.30005537       1.26037666       0.32012008       0.28171491       0.29942951      -1.03156781      -0.72705019
S       12.63390636      12.63502633       8.22386837      -1.03433350      -0.43268876       1.01553114       1.05807686      -0.25596789       1.63400090
O       12.16801054      13.23601348       9.47224204      -0.15255084       0.79029404       0.41132569       0.54280454      -0.41172835      -1.45685363
O       13.90061046      13.02385776       7.61567959       0.12741948      -1.20950144       0.30260104      -1.32371044      -0.13255410       0.45508406
F       12.96079934      11.07190844       8.68436627      -0.10699995      -0.05930320       0.45213991      -0.31312996       0.59119052      -0.25877789
F       10.36408819      11.65968779       5.13742988      -0.11968995       0.82058145      -0.26017263      -0.28512648       0.27169198       0.58646202
O       31.03093192      16.88326035      12.64437709       0.66868374       0.52341476       1.01699714       0.00403382      -0.68190783      -0.85177493
S       31.63412681      16.12945319      11.54554766      -0.12664797       0.86892520       0.91880708      -0.42131421       0.65537375       0.55641955
O       31.61600605      14.70796513      11.49324223       0.72412629       0.00746222      -0.85946813      -0.09851774      -0.68076819       0.45168194
N       33.08466254      16.58815798      11.22278421      -1.06208270       0.20040028       0.56795877       1.09044254       0.55728132      -0.27811003
S       33.48625626      18.12491407      11.00619489       0.25377896      -0.71713762      -1.64473722      -3.11794782      -0.91911614       1.16179943
O       32.36280006      18.89961108      10.49334911       0.52359237      -0.72683972       0.53305206       0.51917034       0.19835226       0.31051546
O       34.72763353      18.20422651      10.38773719       0.05951902       0.45068786      -0.32775318       2.24943304       0.40413070      -0.74364114
F       33.67511854      18.64971600      12.54199669      -0.96826995       0.42534367      -0.40427741       0.06741317       0.12354806      -0.44574115
F       30.79286156      16.49187748      10.18040290      -1.07971119      -0.71004710      -0.60947791      -0.17696229       0.43823868       0.09528022
O       17.99572581      14.85891562      33.07853192       0.16406854       1.04276550       0.73048490      -0.12547241      -1.23223770       0.44413805
S       19.14852932      14.14282322      32.56443259       0.14802835      -0.98650275      -0.34150444      -0.90316737       1.46496594       1.47843087
O       19.58826770      14.76135431      31.36372441      -0.44452559       0.29747155      -1.15721739       1.07386243       0.48527721      -2.11850476
N       19.34409533      12.61161767      32.61264985       0.42697483      -0.56591583      -0.37672673      -0.32052216      -1.04778218      -0.43248379
S       18.25803698      11.52557198      31.97883578       2.00172202      -0.62157403      -0.93962744      -0.76978737      -0.08083752       2.25025177
O       17.90769071      11.68849064      30.59958814      -0.52453073      -0.43965964      -0.24339989      -0.61299425       0.54783875      -0.05655918
O       17.33639852      11.18345546      33.09231201       0.29791815       0.98157679       0.31511405       1.26373899       0.19279326      -2.38695765
F       19.33357652      10.32613961      31.79261429      -1.31486910      -0.98895835       1.50477475       0.20579100      -0.18517303       0.62367171
F       20.31327309      14.47168730      33.63921264      -0.11908985       1.15567464      -0.74908972       0.08715349      -0.21275000      -0.13834286
O       19.64295093       8.65834477      20.54755952       0.69508178      -0.33879721       0.48325444      -0.09094919      -0.63391876      -1.43614185
S       19.59777541       8.26982013      19.12271894       0.99172899       0.99715052       0.27110600       0.15352614      -0.33613512       1.14257205
O       20.79462643       8.57951565      18.35270588      -0.46521505      -0.15875877       0.14142980      -0.52056450       0.37073207      -0.18178040
N       18.13783283       8.49850745      18.49412337      -0.32688404      -0.86133645      -0.53624463       0.87860733       0.00805716      -0.14338973
S       17.64999165      10.03097333      18.43717053       0.83895082       0.32145153      -0.67028792      -0.74029392       0.62219840       0.21619079
O       18.75793409      10.98235316      18.35973806      -0.10433726      -0.46124671       0.28155165      -0.23044418      -0.27994242       0.08843383
O       16.55630849      10.29770216      19.33048264       1.05186584       0.65415047      -0.05572398       0.49616688      -0.12916161      -0.03237508
F       16.94168754      10.13804052      17.00826232      -1.32173734      -0.48354055       0.70391950       0.42866531      -0.39593750       0.01645433
F       19.73665895       6.60862987      19.10349350      -0.43765262      -0.01103164       0.21278293      -0.39214692       0.46455678       0.20850183
O        9.55089754      23.64461504       7.47436888      -0.43471290       0.60734516      -0.33996430       0.38595584       0.26859164       0.39639154
S       10.21191012      22.37373020       7.44827143       1.49265214       0.12330846      -0.49601821      -0.39627299      -0.36233974      -2.95613503
O        9.49821943      21.33136646       6.69641357       0.10987076      -0.07448462       0.10525767       1.08898914       0.63192719       0.57890952
N       10.85256980      21.93391201       8.80302398       0.45899626      -0.37775616      -0.03022618      -0.04025478      -0.58489734       0.74833578
S       10.17191742      20.70559236       9.60804135      -1.49292732      -0.14439130      -0.23064203       0.33169484      -1.14373434      -1.05495834
O        9.07765597      20.00195549       8.99066184      -0.56067649       0.37120163      -0.45250456       0.50520974      -0.04457780      -0.42374799
O        9.92910931      21.08957392      10.94821085       0.26352454       0.09203629       0.43692814       0.39644116       0.53826493       1.48730123